# vtk DataFile Version 3.0
vtk output
ASCII
DATASET UNSTRUCTURED_GRID
FIELD FieldData 2
TIME 1 1 double
160
CYCLE 1 1 int
0
POINTS 9885 float
-0.0498784 -0.0486785 -2.51062e-09
-0.0486602 -0.0486443 3.50795e-09
-0.0486345 -0.0474244 2.76933e-08
-0.049923 -0.0474046 -1.98481e-09
-0.0499124 -0.0498879 -1.41626e-10
-0.0486322 -0.04993 -8.43373e-10
-0.0474144 -0.0499014 -6.53719e-09
-0.0473808 -0.0486813 2.919e-08
-0.0486746 -0.0461563 3.72158e-08
-0.0498791 -0.0461725 5.40506e-09
-0.0474154 -0.0474089 1.31084e-07
-0.0473848 -0.046179 8.70083e-08
-0.0461317 -0.0499378 -4.90393e-10
-0.0461594 -0.0486614 4.61656e-08
-0.0461395 -0.0474244 1.23399e-07
-0.0486267 -0.0449256 5.02156e-08
-0.0499346 -0.0449063 1.65417e-08
-0.0474113 -0.0449194 -8.96442e-07
-0.0461557 -0.0461646 -9.96203e-07
-0.0461375 -0.0449255 -3.8554e-06
-0.0449085 -0.0499174 -4.74578e-09
-0.0448905 -0.0486751 8.6225e-08
-0.0449055 -0.0474164 -3.62286e-07
-0.0448917 -0.0461739 -3.42447e-06
-0.0486649 -0.043676 1.88889e-08
-0.049867 -0.0436738 6.50108e-08
-0.0473763 -0.0436748 -2.10141e-06
-0.0461478 -0.0436761 -9.27474e-06
-0.0448973 -0.0449209 -1.05816e-05
-0.0448896 -0.0436722 -2.10309e-05
-0.0436377 -0.0499182 1.46934e-08
-0.0436544 -0.0486666 1.16104e-07
-0.0436454 -0.0474164 -1.23536e-06
-0.043647 -0.0461684 -7.67333e-06
-0.0436431 -0.0449214 -2.01084e-05
-0.0486193 -0.0424349 4.62004e-09
-0.0499155 -0.0424314 1.02435e-07
-0.0473989 -0.0424332 -4.74958e-06
-0.0461331 -0.0424222 -1.58348e-05
-0.0448962 -0.0424257 -3.58403e-05
-0.0436462 -0.0436721 -3.87323e-05
-0.0436424 -0.0424212 -6.18918e-05
-0.0423953 -0.0499114 4.83065e-08
-0.0423967 -0.0486561 1.15429e-07
-0.0423944 -0.047416 -2.48827e-06
-0.0423949 -0.0461685 -1.33362e-05
-0.042396 -0.0449189 -3.3019e-05
-0.0423946 -0.0436702 -6.02769e-05
-0.0486543 -0.0411948 -9.24345e-08
-0.0498737 -0.0412043 1.44388e-07
-0.0473782 -0.0411809 -7.43916e-06
-0.0461473 -0.0411783 -2.57684e-05
-0.0448895 -0.041172 -5.29625e-05
-0.043649 -0.0411744 -9.0615e-05
-0.0423983 -0.0424218 -9.49518e-05
-0.0423969 -0.0411709 -0.000134324
-0.0411408 -0.0499012 7.82563e-08
-0.0411444 -0.048665 1.52324e-07
-0.0411425 -0.0474116 -5.09237e-06
-0.0411449 -0.0461659 -2.05036e-05
-0.0411453 -0.0449181 -4.81683e-05
-0.0411479 -0.0436689 -8.62313e-05
-0.0411478 -0.0424198 -0.000131887
-0.0486284 -0.0399459 -2.25275e-07
-0.0499079 -0.0399477 2.63413e-07
-0.0474028 -0.039934 -1.19166e-05
-0.0461395 -0.0399253 -3.63829e-05
-0.0449009 -0.0399267 -7.46506e-05
-0.0436461 -0.0399216 -0.000122088
-0.0424034 -0.0399246 -0.000179284
-0.0411525 -0.0411721 -0.000184742
-0.0411522 -0.0399221 -0.000241141
-0.0398956 -0.0499155 1.35444e-07
-0.0398877 -0.0486544 1.15107e-07
-0.0398933 -0.0474157 -6.69666e-06
-0.0398935 -0.0461647 -2.90313e-05
-0.0398972 -0.044916 -6.60338e-05
-0.0398977 -0.0436679 -0.000114722
-0.0399018 -0.0424192 -0.000173277
-0.0399024 -0.0411708 -0.000237813
-0.048659 -0.038691 -3.64846e-07
-0.0498736 -0.0387017 3.93136e-07
-0.0473921 -0.0386813 -1.62552e-05
-0.0461549 -0.0386809 -4.99385e-05
-0.0448969 -0.0386732 -9.72027e-05
-0.0436549 -0.0386771 -0.00015794
-0.0424019 -0.038673 -0.000226029
-0.0411588 -0.0386764 -0.000301583
-0.039908 -0.0399239 -0.00030803
-0.0399084 -0.038675 -0.000379541
-0.038644 -0.0499123 1.98105e-07
-0.0386391 -0.0486712 4.78967e-08
-0.0386414 -0.0474125 -1.06259e-05
-0.0386461 -0.0461648 -3.93147e-05
-0.0386465 -0.0449154 -8.58114e-05
-0.0386511 -0.0436661 -0.000146244
-0.0386519 -0.0424186 -0.000216171
-0.0386573 -0.0411708 -0.000294173
-0.0386582 -0.0399233 -0.000375492
-0.0486443 -0.0374323 -5.31695e-07
-0.049925 -0.0374547 4.69189e-07
-0.04741 -0.0374376 -2.07102e-05
-0.0461489 -0.0374253 -6.28545e-05
-0.0449072 -0.0374307 -0.000122926
-0.0436518 -0.037424 -0.00019386
-0.0424096 -0.0374286 -0.000275391
-0.0411578 -0.0374261 -0.000361742
-0.0399151 -0.0374296 -0.000452438
-0.0386647 -0.0386772 -0.000459957
-0.0386652 -0.0374295 -0.000542935
-0.0373851 -0.0499244 3.09886e-07
-0.0373933 -0.0486661 -9.34656e-08
-0.0373943 -0.0474148 -1.43134e-05
-0.0373955 -0.0461632 -5.10976e-05
-0.0374003 -0.0449132 -0.00010778
-0.0374008 -0.0436657 -0.000178665
-0.0374065 -0.0424171 -0.000261175
-0.0374075 -0.0411707 -0.000349944
-0.0374139 -0.0399239 -0.000444119
-0.0374152 -0.0386774 -0.000538527
-0.0486705 -0.0361975 -6.81358e-07
-0.0498978 -0.0361816 4.99192e-07
-0.0474006 -0.036176 -2.62186e-05
-0.0461594 -0.0361856 -7.79526e-05
-0.0449015 -0.0361753 -0.000147254
-0.0436602 -0.0361811 -0.000231026
-0.0424066 -0.0361771 -0.00032301
-0.041165 -0.0361814 -0.000421748
-0.0399143 -0.0361808 -0.000522502
-0.038672 -0.036184 -0.000624203
-0.037422 -0.0374317 -0.000632996
-0.0374227 -0.036185 -0.000723253
-0.036143 -0.049919 4.38079e-07
-0.0361424 -0.0486627 -3.70596e-07
-0.0361461 -0.0474127 -1.95452e-05
-0.0361493 -0.0461601 -6.43409e-05
-0.0361495 -0.0449124 -0.000130173
-0.0361555 -0.0436627 -0.000212343
-0.0361562 -0.042417 -0.000304959
-0.0361628 -0.0411696 -0.000406033
-0.0361642 -0.0399243 -0.000509788
-0.0361712 -0.0386784 -0.000615716
-0.0361727 -0.0374327 -0.000718912
-0.04865 -0.0349287 -8.33734e-07
-0.0499103 -0.0349383 6.36294e-07
-0.0474093 -0.0349394 -3.03835e-05
-0.0461497 -0.0349268 -9.11579e-05
-0.04491 -0.0349336 -0.000171463
-0.0436543 -0.0349282 -0.000265379
-0.0424141 -0.0349328 -0.000369104
-0.0411621 -0.0349317 -0.000477829
-0.039921 -0.0349353 -0.000589322
-0.0386713 -0.0349364 -0.000700166
-0.0374291 -0.0349391 -0.000808789
-0.0361795 -0.0361871 -0.000819053
-0.0361803 -0.034941 -0.000912755
-0.0348877 -0.0499036 5.56647e-07
-0.0348947 -0.0486612 -5.79411e-07
-0.0348991 -0.0474029 -2.5943e-05
-0.0348981 -0.0461587 -7.78552e-05
-0.0349045 -0.0449073 -0.00015302
-0.0349045 -0.0436624 -0.000244492
-0.0349116 -0.0424142 -0.000348479
-0.0349127 -0.0411698 -0.000458606
-0.03492 -0.0399236 -0.000573529
-0.0349217 -0.0386791 -0.000687791
-0.0349289 -0.0374337 -0.000800932
-0.0349305 -0.0361886 -0.000908897
-0.0486534 -0.0336873 -1.00131e-06
-0.0498984 -0.0336769 8.12804e-07
-0.0473968 -0.0336788 -3.61791e-05
-0.046158 -0.0336843 -0.000103138
-0.0449005 -0.0336796 -0.000193046
-0.0436619 -0.0336836 -0.000297296
-0.0424083 -0.0336827 -0.000410741
-0.0411686 -0.0336859 -0.000529455
-0.0399182 -0.0336872 -0.000650067
-0.0386773 -0.03369 -0.000770014
-0.0374284 -0.0336923 -0.000886988
-0.0361861 -0.0336946 -0.000999176
-0.0349369 -0.0349428 -0.00101104
-0.0349376 -0.0336969 -0.00110516
-0.0336378 -0.0499053 6.74563e-07
-0.0336473 -0.0486429 -7.89467e-07
-0.0336461 -0.0474051 -3.03138e-05
-0.0336531 -0.0461505 -9.05552e-05
-0.0336525 -0.0449072 -0.000174381
-0.0336602 -0.0436576 -0.000276044
-0.0336607 -0.0424141 -0.000388446
-0.0336684 -0.0411675 -0.000508986
-0.03367 -0.0399239 -0.000631712
-0.0336775 -0.0386788 -0.000755639
-0.0336794 -0.0374347 -0.00087615
-0.0336864 -0.0361895 -0.000992601
-0.033688 -0.0349445 -0.0011021
-0.0486446 -0.0324294 -1.23226e-06
-0.0498931 -0.0324328 9.53642e-07
-0.0474035 -0.0324311 -3.99125e-05
-0.046146 -0.0324311 -0.000114367
-0.0449082 -0.0324328 -0.000212262
-0.0436528 -0.032434 -0.000325193
-0.0424145 -0.0324358 -0.000447337
-0.0411631 -0.032438 -0.000574694
-0.0399235 -0.0324401 -0.000703747
-0.0386746 -0.0324429 -0.000831939
-0.0374335 -0.0324451 -0.000956806
-0.0361854 -0.032448 -0.0010768
-0.0349427 -0.0324499 -0.00119011
-0.0336939 -0.0336984 -0.00120363
-0.0336945 -0.0324524 -0.00129611
-0.0323912 -0.0498859 7.82238e-07
-0.0323932 -0.0486522 -9.04658e-07
-0.0323998 -0.0473918 -3.48595e-05
-0.0323998 -0.0461525 -0.000102684
-0.0324083 -0.0449002 -0.00019519
-0.0324085 -0.0436576 -0.000304547
-0.0324167 -0.04241 -0.000426235
-0.0324179 -0.0411673 -0.000553883
-0.0324257 -0.039922 -0.0006856
-0.0324276 -0.038679 -0.000816321
-0.0324349 -0.0374344 -0.000945077
-0.032437 -0.0361904 -0.0010684
-0.0324435 -0.0349452 -0.00118526
-0.032445 -0.0337001 -0.00129403
-0.0486504 -0.0311743 -1.42883e-06
-0.0499014 -0.0311853 9.30787e-07
-0.0473933 -0.0311822 -4.43789e-05
-0.0461535 -0.0311793 -0.000124207
-0.0448965 -0.0311856 -0.000228587
-0.0436586 -0.0311847 -0.000348303
-0.0424061 -0.0311889 -0.00047779
-0.0411676 -0.0311895 -0.000612568
-0.0399184 -0.0311933 -0.000749286
-0.0386786 -0.0311947 -0.000884893
-0.0374309 -0.0311983 -0.00101738
-0.0361894 -0.0312001 -0.00114452
-0.0349419 -0.0312033 -0.00126541
-0.0336987 -0.0312049 -0.00137823
-0.0324502 -0.0324536 -0.00139332
-0.0324507 -0.0312073 -0.00148306
-0.0311434 -0.0499006 7.48986e-07
-0.0311432 -0.0486316 -8.94505e-07
-0.0311458 -0.0474005 -3.93846e-05
-0.0311558 -0.0461426 -0.00011443
-0.031156 -0.0449013 -0.000214098
-0.0311648 -0.0436516 -0.000331129
-0.0311656 -0.0424095 -0.00045904
-0.0311737 -0.0411637 -0.00059461
-0.0311753 -0.0399216 -0.000732405
-0.0311829 -0.0386772 -0.00087079
-0.0311851 -0.0374344 -0.00100581
-0.031192 -0.03619 -0.00113624
-0.0311941 -0.034946 -0.0012599
-0.0311999 -0.0337006 -0.00137533
-0.0312014 -0.0324552 -0.00148201
-0.0486489 -0.0299362 -1.30452e-06
-0.0499009 -0.0299183 8.37338e-07
-0.0473993 -0.0299227 -4.57552e-05
-0.0461408 -0.0299373 -0.000132142
-0.0449012 -0.0299322 -0.00024088
-0.0436476 -0.0299402 -0.000365837
-0.0424094 -0.0299384 -0.000501271
-0.0411598 -0.0299437 -0.000642522
-0.0399211 -0.0299438 -0.000785913
-0.0386737 -0.0299482 -0.000928545
-0.0374336 -0.0299494 -0.00106784
-0.0361869 -0.0299532 -0.00120231
-0.0349449 -0.0299548 -0.00132991
-0.0336979 -0.029958 -0.00145035
-0.0324541 -0.0299594 -0.00156179
-0.0312058 -0.0312083 -0.00157829
-0.0312063 -0.0299617 -0.00166488
-0.029902 -0.0498906 9.64208e-07
-0.0298868 -0.0486591 -1.31136e-06
-0.0299034 -0.047387 -4.32875e-05
-0.029903 -0.0461466 -0.00012604
-0.0299128 -0.0448931 -0.000231045
-0.0299133 -0.0436513 -0.000353421
-0.0299218 -0.0424041 -0.000487883
-0.029923 -0.0411626 -0.000628668
-0.0299308 -0.0399182 -0.00077324
-0.0299327 -0.0386763 -0.000917166
-0.0299399 -0.0374327 -0.00105881
-0.0299422 -0.0361897 -0.00119542
-0.0299485 -0.0349454 -0.00132544
-0.0299506 -0.0337011 -0.00144785
[...]
POINT_DATA 9885
SCALARS NODE_ID int 1
LOOKUP_TABLE default
82
83
164
163
1
2
3
84
245
244
165
246
4
85
166
326
325
327
247
328
5
86
167
248
407
406
408
409
329
410
6
87
168
249
330
488
487
489
490
491
411
492
7
88
169
250
331
412
569
568
570
571
572
573
493
574
8
89
170
251
332
413
494
650
649
651
652
653
654
655
575
656
9
90
171
252
333
414
495
576
731
730
732
733
734
735
736
737
657
738
10
91
172
253
334
415
496
577
658
812
811
813
814
815
816
817
818
819
739
820
11
92
173
254
335
416
497
578
659
740
893
892
894
895
896
897
898
899
900
901
821
902
12
93
174
255
336
417
498
579
660
741
822
974
973
975
976
977
978
979
980
981
982
983
903
984
13
94
175
256
337
418
499
580
661
742
823
904
1055
1054
1056
1057
1058
1059
1060
1061
1062
1063
1064
1065
985
1066
14
95
176
257
338
419
500
581
662
743
824
905
986
1136
1135
1137
1138
1139
1140
1141
1142
1143
1144
1145
1146
1147
1067
1148
15
96
177
258
339
420
501
582
663
744
825
906
987
1068
1217
1216
1218
1219
1220
1221
1222
1223
1224
1225
1226
1227
1228
1229
1149
1230
16
97
178
259
340
421
502
583
664
745
826
907
988
1069
1150
1298
1297
1299
1300
1301
1302
1303
1304
1305
1306
1307
1308
1309
1310
1311
1231
1312
17
98
179
260
341
422
503
584
665
746
827
908
989
1070
1151
1232
1379
1378
1380
1381
1382
1383
1384
1385
1386
1387
1388
1389
1390
1391
1392
1393
1313
1394
18
99
180
261
342
423
504
585
666
747
828
909
990
1071
1152
1233
1314
1460
1459
1461
1462
1463
1464
1465
1466
1467
1468
1469
1470
1471
1472
1473
1474
1475
1395
1476
19
100
181
262
343
424
505
586
667
748
829
910
991
1072
1153
1234
1315
1396
1541
1540
1542
1543
1544
1545
1546
1547
1548
1549
1550
1551
1552
1553
1554
1555
1556
1557
1477
1558
20
101
182
263
344
425
506
587
668
749
830
911
992
1073
1154
1235
1316
1397
1478
1622
1621
1623
1624
1625
1626
1627
1628
1629
1630
1631
1632
1633
1634
1635
1636
1637
1638
1639
1559
1640
21
102
183
264
345
426
507
588
669
750
831
912
993
1074
1155
1236
1317
1398
1479
1560
1703
1702
1704
1705
1706
1707
1708
1709
1710
1711
1712
1713
1714
1715
1716
1717
1718
1719
1720
1721
1641
1722
22
103
184
265
346
427
508
589
670
751
832
913
994
1075
1156
1237
1318
1399
1480
1561
1642
1784
1783
1785
1786
1787
1788
1789
1790
1791
1792
1793
1794
1795
1796
1797
1798
1799
1800
1801
1802
1803
1723
1804
23
104
185
266
347
428
509
590
671
752
833
914
995
1076
1157
1238
1319
1400
1481
1562
1643
1724
1865
1864
1866
1867
1868
1869
1870
1871
1872
1873
1874
1875
1876
1877
1878
1879
1880
1881
1882
1883
1884
1885
1805
1886
24
105
186
267
348
429
510
591
672
753
834
915
996
1077
1158
1239
1320
1401
1482
1563
1644
1725
1806
1946
1945
1947
1948
1949
1950
1951
1952
1953
1954
1955
1956
1957
1958
1959
1960
1961
1962
1963
1964
1965
1966
1967
1887
1968
25
106
187
268
349
430
511
592
673
754
835
916
997
1078
1159
1240
1321
1402
1483
1564
1645
1726
1807
1888
2027
2026
2028
2029
2030
2031
2032
2033
2034
2035
2036
2037
2038
2039
2040
2041
2042
2043
2044
2045
2046
2047
2048
2049
1969
2050
26
107
188
269
350
431
512
593
674
755
836
917
998
1079
1160
1241
1322
1403
1484
1565
1646
1727
1808
1889
1970
2108
2107
2109
2110
2111
2112
2113
2114
2115
2116
2117
2118
2119
2120
2121
2122
2123
2124
2125
2126
2127
2128
2129
2130
2131
2051
2132
27
108
189
270
351
432
513
594
675
756
837
918
999
1080
1161
1242
1323
1404
1485
1566
1647
1728
1809
1890
1971
2052
2189
2188
2190
2191
2192
2193
2194
2195
2196
2197
2198
2199
2200
2201
2202
2203
2204
2205
2206
2207
2208
2209
2210
2211
2212
2213
2133
2214
28
109
190
271
352
433
514
595
676
757
838
919
1000
1081
1162
1243
1324
1405
1486
1567
1648
1729
1810
1891
1972
2053
2134
2270
2269
2271
2272
2273
2274
2275
2276
2277
2278
2279
2280
2281
2282
2283
2284
2285
2286
2287
2288
2289
2290
2291
2292
2293
2294
2295
2215
2296
29
110
191
272
353
434
515
596
677
758
839
920
1001
1082
1163
1244
1325
1406
1487
1568
1649
1730
1811
1892
1973
2054
2135
2216
2351
2350
2352
2353
2354
2355
2356
2357
2358
2359
2360
2361
2362
2363
2364
2365
2366
2367
2368
2369
2370
2371
2372
2373
2374
2375
2376
2377
2297
2378
30
111
192
273
354
435
516
597
678
759
840
921
1002
1083
1164
1245
1326
1407
1488
1569
1650
1731
1812
1893
1974
2055
2136
2217
2298
2432
2431
2433
2434
2435
2436
2437
2438
2439
2440
2441
2442
2443
2444
2445
2446
2447
2448
2449
2450
2451
2452
2453
2454
2455
2456
2457
2458
2459
2379
2460
31
112
193
274
355
436
517
598
679
760
841
922
1003
1084
1165
1246
1327
1408
1489
1570
1651
1732
1813
1894
1975
2056
2137
2218
2299
2380
2513
2512
2514
2515
2516
2517
2518
2519
2520
2521
2522
2523
2524
2525
2526
2527
2528
2529
2530
2531
2532
2533
2534
2535
2536
2537
2538
2539
2540
2541
2461
2542
32
113
194
275
356
437
518
599
680
761
842
923
1004
1085
1166
1247
1328
1409
1490
1571
1652
1733
1814
1895
1976
2057
2138
2219
2300
2381
2462
2594
2593
2595
2596
2597
2598
2599
2600
2601
2602
2603
2604
2605
2606
2607
2608
2609
2610
2611
2612
2613
2614
2615
2616
2617
2618
2619
2620
2621
2622
2623
2543
2624
33
114
195
276
357
438
519
600
681
762
843
924
1005
1086
1167
1248
1329
1410
1491
1572
1653
1734
1815
1896
1977
2058
2139
2220
2301
2382
2463
2544
2675
2674
2676
2677
2678
2679
2680
2681
2682
2683
2684
2685
2686
2687
2688
2689
2690
2691
2692
2693
2694
2695
2696
2697
2698
2699
2700
2701
2702
2703
2704
2705
2625
2706
34
115
196
277
358
439
520
601
682
763
844
925
1006
1087
1168
1249
1330
1411
1492
1573
1654
1735
1816
1897
1978
2059
2140
2221
2302
2383
2464
2545
2626
2756
2755
2757
2758
2759
2760
2761
2762
2763
2764
2765
2766
2767
2768
2769
2770
2771
2772
2773
2774
2775
2776
2777
2778
2779
2780
2781
2782
2783
2784
2785
2786
2787
2707
2788
35
116
197
278
359
440
521
602
683
764
845
926
1007
1088
1169
1250
1331
1412
1493
1574
1655
1736
1817
1898
1979
2060
2141
2222
2303
2384
2465
2546
2627
2708
2837
2836
2838
2839
2840
2841
2842
2843
2844
2845
2846
2847
2848
2849
2850
2851
2852
2853
2854
2855
2856
2857
2858
2859
2860
2861
2862
2863
2864
2865
2866
2867
2868
2869
2789
2870
36
117
198
279
360
441
522
603
684
765
846
927
1008
1089
1170
1251
1332
1413
1494
1575
1656
1737
1818
1899
1980
2061
2142
2223
2304
2385
2466
2547
2628
2709
2790
2918
2917
2919
2920
2921
2922
2923
2924
2925
2926
2927
2928
2929
2930
2931
2932
2933
2934
2935
2936
2937
2938
2939
2940
2941
2942
2943
2944
2945
2946
2947
2948
2949
2950
2951
2871
2952
37
118
199
280
361
442
523
604
685
766
847
928
1009
1090
1171
1252
1333
1414
1495
1576
1657
1738
1819
1900
1981
2062
2143
2224
2305
2386
2467
2548
2629
2710
2791
2872
2999
2998
3000
3001
3002
3003
3004
3005
3006
3007
3008
3009
3010
3011
3012
3013
3014
3015
3016
3017
3018
3019
3020
3021
3022
3023
3024
3025
3026
3027
3028
3029
3030
3031
3032
3033
2953
3034
38
119
200
281
362
443
524
605
686
767
848
929
1010
1091
1172
1253
1334
1415
1496
1577
1658
1739
1820
1901
1982
2063
2144
2225
2306
2387
2468
2549
2630
2711
2792
2873
2954
3080
3079
3081
3082
3083
3084
3085
3086
3087
3088
3089
3090
3091
3092
3093
3094
3095
3096
3097
3098
3099
3100
3101
3102
3103
3104
3105
3106
3107
3108
3109
3110
3111
3112
3113
3114
3115
3035
3116
39
120
201
282
363
444
525
606
687
768
849
930
1011
1092
1173
1254
1335
1416
1497
1578
1659
1740
1821
1902
1983
2064
2145
2226
2307
2388
2469
2550
2631
2712
2793
2874
2955
3036
3161
3160
3162
3163
3164
3165
3166
3167
3168
3169
3170
3171
3172
3173
3174
3175
3176
3177
3178
3179
3180
3181
3182
3183
3184
3185
3186
3187
3188
3189
3190
3191
3192
3193
3194
3195
3196
3197
3117
3198
40
121
202
283
364
445
526
607
688
769
850
931
1012
1093
1174
1255
1336
1417
1498
1579
1660
1741
1822
1903
1984
2065
2146
2227
2308
2389
2470
2551
2632
2713
2794
2875
2956
3037
3118
3242
3241
3243
3244
3245
3246
3247
3248
3249
3250
3251
3252
3253
3254
3255
3256
3257
3258
3259
3260
3261
3262
3263
3264
3265
3266
3267
3268
3269
3270
3271
3272
3273
3274
3275
3276
3277
3278
3279
3199
3280
41
122
203
284
365
446
527
608
689
770
851
932
1013
1094
1175
1256
1337
1418
1499
1580
1661
1742
1823
1904
1985
2066
2147
2228
2309
2390
2471
2552
2633
2714
2795
2876
2957
3038
3119
3200
3323
3322
3324
3325
3326
3327
3328
3329
3330
3331
3332
3333
3334
3335
3336
3337
3338
3339
3340
3341
3342
3343
3344
3345
3346
3347
3348
3349
3350
3351
3352
3353
3354
3355
3356
3357
3358
3359
3360
3361
3281
3362
42
123
204
285
366
447
528
609
690
771
852
933
1014
1095
1176
1257
1338
1419
1500
1581
1662
1743
1824
1905
1986
2067
2148
2229
2310
2391
2472
2553
2634
2715
2796
2877
2958
3039
3120
3201
3282
3404
3403
3405
3406
3407
3408
3409
3410
3411
3412
3413
3414
3415
3416
3417
3418
3419
3420
3421
3422
3423
3424
3425
3426
3427
3428
3429
3430
3431
3432
3433
3434
3435
3436
3437
3438
3439
3440
3441
3442
3443
3363
3444
43
124
205
286
367
448
529
610
691
772
853
934
1015
1096
1177
1258
1339
1420
1501
1582
1663
1744
1825
1906
1987
2068
2149
2230
2311
2392
2473
2554
2635
2716
2797
2878
2959
3040
3121
3202
3283
3364
3485
3484
3486
3487
3488
3489
3490
3491
3492
3493
3494
3495
3496
3497
3498
3499
3500
3501
3502
3503
3504
3505
3506
3507
3508
3509
3510
3511
3512
3513
3514
3515
3516
3517
3518
3519
3520
3521
3522
3523
3524
3525
3445
3526
44
125
206
287
368
449
530
611
692
773
854
935
1016
1097
1178
1259
1340
1421
1502
1583
1664
1745
1826
1907
1988
2069
2150
2231
2312
2393
2474
2555
2636
2717
2798
2879
2960
3041
3122
3203
3284
3365
3446
3566
3565
3567
3568
3569
3570
3571
3572
3573
3574
3575
3576
3577
3578
3579
3580
3581
3582
3583
3584
3585
3586
3587
3588
3589
3590
3591
3592
3593
3594
3595
3596
3597
3598
3599
3600
3601
3602
3603
3604
3605
3606
3607
3527
3608
45
126
207
288
369
450
531
612
693
774
855
936
1017
1098
1179
1260
1341
1422
1503
1584
1665
1746
1827
1908
1989
2070
2151
2232
2313
2394
2475
2556
2637
2718
2799
2880
2961
3042
3123
3204
3285
3366
3447
3528
3647
3646
3648
3649
3650
3651
3652
3653
3654
3655
3656
3657
3658
3659
3660
3661
3662
3663
3664
3665
3666
3667
3668
3669
3670
3671
3672
3673
3674
3675
3676
3677
3678
3679
3680
3681
3682
3683
3684
3685
3686
3687
3688
3689
3609
3690
46
127
208
289
370
451
532
613
694
775
856
937
1018
1099
1180
1261
1342
1423
1504
1585
1666
1747
1828
1909
1990
2071
2152
2233
2314
2395
2476
2557
2638
2719
2800
2881
2962
3043
3124
3205
3286
3367
3448
3529
3610
3728
3727
3729
3730
3731
3732
3733
3734
3735
3736
3737
3738
3739
3740
3741
3742
3743
3744
3745
3746
3747
3748
3749
3750
3751
3752
3753
3754
3755
3756
3757
3758
3759
3760
3761
3762
3763
3764
3765
3766
3767
3768
3769
3770
3771
3691
3772
47
128
209
290
371
452
533
614
695
776
857
938
1019
1100
1181
1262
1343
1424
1505
1586
1667
1748
1829
1910
1991
2072
2153
2234
2315
2396
2477
2558
2639
2720
2801
2882
2963
3044
3125
3206
3287
3368
3449
3530
3611
3692
3809
3808
3810
3811
3812
3813
3814
3815
3816
3817
3818
3819
3820
3821
3822
3823
3824
3825
3826
3827
3828
3829
3830
3831
3832
3833
3834
3835
3836
3837
3838
3839
3840
3841
3842
3843
3844
3845
3846
3847
3848
3849
3850
3851
3852
3853
3773
3854
48
129
210
291
372
453
534
615
696
777
858
939
1020
1101
1182
1263
1344
1425
1506
1587
1668
1749
1830
1911
1992
2073
2154
2235
2316
2397
2478
2559
2640
2721
2802
2883
2964
3045
3126
3207
3288
3369
3450
3531
3612
3693
3774
3890
3889
3891
3892
3893
3894
3895
3896
3897
3898
3899
3900
3901
3902
3903
3904
3905
3906
3907
3908
3909
3910
3911
3912
3913
3914
3915
3916
3917
3918
3919
3920
3921
3922
3923
3924
3925
3926
3927
3928
3929
3930
3931
3932
3933
3934
3935
3855
3936
49
130
211
292
373
454
535
616
697
778
859
940
1021
1102
1183
1264
1345
1426
1507
1588
1669
1750
1831
1912
1993
2074
2155
2236
2317
2398
2479
2560
2641
2722
2803
2884
2965
3046
3127
3208
3289
3370
3451
3532
3613
3694
3775
3856
3971
3970
3972
3973
3974
3975
3976
3977
3978
3979
3980
3981
3982
3983
3984
3985
3986
3987
3988
3989
3990
3991
3992
3993
3994
3995
3996
3997
3998
3999
4000
4001
4002
4003
4004
4005
4006
4007
4008
4009
4010
4011
4012
4013
4014
4015
4016
4017
3937
4018
50
131
212
293
374
455
536
617
698
779
860
941
1022
1103
1184
1265
1346
1427
1508
1589
1670
1751
1832
1913
1994
2075
2156
2237
2318
2399
2480
2561
2642
2723
2804
2885
2966
3047
3128
3209
3290
3371
3452
3533
3614
3695
3776
3857
3938
4052
4051
4053
4054
4055
4056
4057
4058
4059
4060
4061
4062
4063
4064
4065
4066
4067
4068
4069
4070
4071
4072
4073
4074
4075
4076
4077
4078
4079
4080
4081
4082
4083
4084
4085
4086
4087
4088
4089
4090
4091
4092
4093
4094
4095
4096
4097
4098
4099
4019
4100
51
132
213
294
375
456
537
618
699
780
861
942
1023
1104
1185
1266
1347
1428
1509
1590
1671
1752
1833
1914
1995
2076
2157
2238
2319
2400
2481
2562
2643
2724
2805
2886
2967
3048
3129
3210
3291
3372
3453
3534
3615
3696
3777
3858
3939
4020
4133
4132
4134
4135
4136
4137
4138
4139
4140
4141
4142
4143
4144
4145
4146
4147
4148
4149
4150
4151
4152
4153
4154
4155
4156
4157
4158
4159
4160
4161
4162
4163
4164
4165
4166
4167
4168
4169
4170
4171
4172
4173
4174
4175
4176
4177
4178
4179
4180
4181
4101
4182
52
133
214
295
376
457
538
619
700
781
862
943
1024
1105
1186
1267
1348
1429
1510
1591
1672
1753
1834
1915
1996
2077
2158
2239
2320
2401
2482
2563
2644
2725
2806
2887
2968
3049
3130
3211
3292
3373
3454
3535
3616
3697
3778
3859
3940
4021
4102
4214
4213
4215
4216
4217
4218
4219
4220
4221
4222
4223
4224
4225
4226
4227
4228
4229
4230
4231
4232
4233
4234
4235
4236
4237
4238
4239
4240
4241
4242
4243
4244
4245
4246
4247
4248
4249
4250
4251
4252
4253
4254
4255
4256
4257
4258
4259
4260
4261
4262
4263
4183
4264
53
134
215
296
377
458
539
620
701
782
863
944
1025
1106
1187
1268
1349
1430
1511
1592
1673
1754
1835
1916
1997
2078
2159
2240
2321
2402
2483
2564
2645
2726
2807
2888
2969
3050
3131
3212
3293
3374
3455
3536
3617
3698
3779
3860
3941
4022
4103
4184
4295
4294
4296
4297
4298
4299
4300
4301
4302
4303
4304
4305
4306
4307
4308
4309
4310
4311
4312
4313
4314
4315
4316
4317
4318
4319
4320
4321
4322
4323
4324
4325
4326
4327
4328
4329
4330
4331
4332
4333
4334
4335
4336
4337
4338
4339
4340
4341
4342
4343
4344
4345
4265
4346
54
135
216
297
378
459
540
621
702
783
864
945
1026
1107
1188
1269
1350
1431
1512
1593
1674
1755
1836
1917
1998
2079
2160
2241
2322
2403
2484
2565
2646
2727
2808
2889
2970
3051
3132
3213
3294
3375
3456
3537
3618
3699
3780
3861
3942
4023
4104
4185
4266
4376
4375
4377
4378
4379
4380
4381
4382
4383
4384
4385
4386
4387
4388
4389
4390
4391
4392
4393
4394
4395
4396
4397
4398
4399
4400
4401
4402
4403
4404
4405
4406
4407
4408
4409
4410
4411
4412
4413
4414
4415
4416
4417
4418
4419
4420
4421
4422
4423
4424
4425
4426
4427
4347
4428
55
136
217
298
379
460
541
622
703
784
865
946
1027
1108
1189
1270
1351
1432
1513
1594
1675
1756
1837
1918
1999
2080
2161
2242
2323
2404
2485
2566
2647
2728
2809
2890
2971
3052
3133
3214
3295
3376
3457
3538
3619
3700
3781
3862
3943
4024
4105
4186
4267
4348
4457
4456
4458
4459
4460
4461
4462
4463
4464
4465
4466
4467
4468
4469
4470
4471
4472
4473
4474
4475
4476
4477
4478
4479
4480
4481
4482
4483
4484
4485
4486
4487
4488
4489
4490
4491
4492
4493
4494
4495
4496
4497
4498
4499
4500
4501
4502
4503
4504
4505
4506
4507
4508
4509
4429
4510
56
137
218
299
380
461
542
623
704
785
866
947
1028
1109
1190
1271
1352
1433
1514
1595
1676
1757
1838
1919
2000
2081
2162
2243
2324
2405
2486
2567
2648
2729
2810
2891
2972
3053
3134
3215
3296
3377
3458
3539
3620
3701
3782
3863
3944
4025
4106
4187
4268
4349
4430
4538
4537
4539
4540
4541
4542
4543
4544
4545
4546
4547
4548
4549
4550
4551
4552
4553
4554
4555
4556
4557
4558
4559
4560
4561
4562
4563
4564
4565
4566
4567
4568
4569
4570
4571
4572
4573
4574
4575
4576
4577
4578
4579
4580
4581
4582
4583
4584
4585
4586
4587
4588
4589
4590
4591
4511
4592
57
138
219
300
381
462
543
624
705
786
867
948
1029
1110
1191
1272
1353
1434
1515
1596
1677
1758
1839
1920
2001
2082
2163
2244
2325
2406
2487
2568
2649
2730
2811
2892
2973
3054
3135
3216
3297
3378
3459
3540
3621
3702
3783
3864
3945
4026
4107
4188
4269
4350
4431
4512
4619
4618
4620
4621
4622
4623
4624
4625
4626
4627
4628
4629
4630
4631
4632
4633
4634
4635
4636
4637
4638
4639
4640
4641
4642
4643
4644
4645
4646
4647
4648
4649
4650
4651
4652
4653
4654
4655
4656
4657
4658
4659
4660
4661
4662
4663
4664
4665
4666
4667
4668
4669
4670
4671
4672
4673
4593
4674
58
139
220
301
382
463
544
625
706
787
868
949
1030
1111
1192
1273
1354
1435
1516
1597
1678
1759
1840
1921
2002
2083
2164
2245
2326
2407
2488
2569
2650
2731
2812
2893
2974
3055
3136
3217
3298
3379
3460
3541
3622
3703
3784
3865
3946
4027
4108
4189
4270
4351
4432
4513
4594
4700
4699
4701
4702
4703
4704
4705
4706
4707
4708
4709
4710
4711
4712
4713
4714
4715
4716
4717
4718
4719
4720
4721
4722
4723
4724
4725
4726
4727
4728
4729
4730
4731
4732
4733
4734
4735
4736
4737
4738
4739
4740
4741
4742
4743
4744
4745
4746
4747
4748
4749
4750
4751
4752
4753
4754
4755
4675
4756
59
140
221
302
383
464
545
626
707
788
869
950
1031
1112
1193
1274
1355
1436
1517
1598
1679
1760
1841
1922
2003
2084
2165
2246
2327
2408
2489
2570
2651
2732
2813
2894
2975
3056
3137
3218
3299
3380
3461
3542
3623
3704
3785
3866
3947
4028
4109
4190
4271
4352
4433
4514
4595
4676
4781
4780
4782
4783
4784
4785
4786
4787
4788
4789
4790
4791
4792
4793
4794
4795
4796
4797
4798
4799
4800
4801
4802
4803
4804
4805
4806
4807
4808
4809
4810
4811
4812
4813
4814
4815
4816
4817
4818
4819
4820
4821
4822
4823
4824
4825
4826
4827
4828
4829
4830
4831
4832
4833
4834
4835
4836
4837
4757
4838
60
141
222
303
384
465
546
627
708
789
870
951
1032
1113
1194
1275
1356
1437
1518
1599
1680
1761
1842
1923
2004
2085
2166
2247
2328
2409
2490
2571
2652
2733
2814
2895
2976
3057
3138
3219
3300
3381
3462
3543
3624
3705
3786
3867
3948
4029
4110
4191
4272
4353
4434
4515
4596
4677
4758
4862
4861
4863
4864
4865
4866
4867
4868
4869
4870
4871
4872
4873
4874
4875
4876
4877
4878
4879
4880
4881
4882
4883
4884
4885
4886
4887
4888
4889
4890
4891
4892
4893
4894
4895
4896
4897
4898
4899
4900
4901
4902
4903
4904
4905
4906
4907
4908
4909
4910
4911
4912
4913
4914
4915
4916
4917
4918
4919
4839
4920
61
142
223
304
385
466
547
628
709
790
871
952
1033
1114
1195
1276
1357
1438
1519
1600
1681
1762
1843
1924
2005
2086
2167
2248
2329
2410
2491
2572
2653
2734
2815
2896
2977
3058
3139
3220
3301
3382
3463
3544
3625
3706
3787
3868
3949
4030
4111
4192
4273
4354
4435
4516
4597
4678
4759
4840
4943
4942
4944
4945
4946
4947
4948
4949
4950
4951
4952
4953
4954
4955
4956
4957
4958
4959
4960
4961
4962
4963
4964
4965
4966
4967
4968
4969
4970
4971
4972
4973
4974
4975
4976
4977
4978
4979
4980
4981
4982
4983
4984
4985
4986
4987
4988
4989
4990
4991
4992
4993
4994
4995
4996
4997
4998
4999
5000
5001
4921
5002
62
143
224
305
386
467
548
629
710
791
872
953
1034
1115
1196
1277
1358
1439
1520
1601
1682
1763
1844
1925
2006
2087
2168
2249
2330
2411
2492
2573
2654
2735
2816
2897
2978
3059
3140
3221
3302
3383
3464
3545
3626
3707
3788
3869
3950
4031
4112
4193
4274
4355
4436
4517
4598
4679
4760
4841
4922
5024
5023
5025
5026
5027
5028
5029
5030
5031
5032
5033
5034
5035
5036
5037
5038
5039
5040
5041
5042
5043
5044
5045
5046
5047
5048
5049
5050
5051
5052
5053
5054
5055
5056
5057
5058
5059
5060
5061
5062
5063
5064
5065
5066
5067
5068
5069
5070
5071
5072
5073
5074
5075
5076
5077
5078
5079
5080
5081
5082
5083
5003
5084
63
144
225
306
387
468
549
630
711
792
873
954
1035
1116
1197
1278
1359
1440
1521
1602
1683
1764
1845
1926
2007
2088
2169
2250
2331
2412
2493
2574
2655
2736
2817
2898
2979
3060
3141
3222
3303
3384
3465
3546
3627
3708
3789
3870
3951
4032
4113
4194
4275
4356
4437
4518
4599
4680
4761
4842
4923
5004
5105
5104
5106
5107
5108
5109
5110
5111
5112
5113
5114
5115
5116
5117
5118
5119
5120
5121
5122
5123
5124
5125
5126
5127
5128
5129
5130
5131
5132
5133
5134
5135
5136
5137
5138
5139
5140
5141
5142
5143
5144
5145
5146
5147
5148
5149
5150
5151
5152
5153
5154
5155
5156
5157
5158
5159
5160
5161
5162
5163
5164
5165
5085
5166
64
145
226
307
388
469
550
631
712
793
874
955
1036
1117
1198
1279
1360
1441
1522
1603
1684
1765
1846
1927
2008
2089
2170
2251
2332
2413
2494
2575
2656
2737
2818
2899
2980
3061
3142
3223
3304
3385
3466
3547
3628
3709
3790
3871
3952
4033
4114
4195
4276
4357
4438
4519
4600
4681
4762
4843
4924
5005
5086
5186
5185
5187
5188
5189
5190
5191
5192
5193
5194
5195
5196
5197
5198
5199
5200
5201
5202
5203
5204
5205
5206
5207
5208
5209
5210
5211
5212
5213
5214
5215
5216
5217
5218
5219
5220
5221
5222
5223
5224
5225
5226
5227
5228
5229
5230
5231
5232
5233
5234
5235
5236
5237
5238
5239
5240
5241
5242
5243
5244
5245
5246
5247
5167
5248
65
146
227
308
389
470
551